<?xml version="1.0" encoding="UTF-8"?>

<!-- generated on 2026-03-28T21:21:32.964475+01:00 by Eclipse SUMO GUI 1.26.0
<sumoConfiguration xmlns:xsi="http://www.w3.org/2001/XMLSchema-instance" xsi:noNamespaceSchemaLocation="http://sumo.dlr.de/xsd/sumoConfiguration.xsd">

    <input>
        <net-file value="input.net.xml"/>
        <route-files value="output_shortest_path.routes.xml"/>
    </input>

    <output>
        <fcd-output value="fcd-export.parquet"/>
        <fcd-output.attributes value="x,y"/>
    </output>

    <fcd_device>
        <device.fcd.explicit value="agent_01,agent_02,agent_03"/>
    </fcd_device>

</sumoConfiguration>
-->

<fcd-export xmlns:xsi="http://www.w3.org/2001/XMLSchema-instance" xsi:noNamespaceSchemaLocation="http://sumo.dlr.de/xsd/fcd_file.xsd">
    <timestep time="0.00">
        <vehicle id="agent_01" x="-96.17" y="5.84"/>
        <vehicle id="agent_03" x="51.67" y="-36.38"/>
    </timestep>
    <timestep time="1.00">
        <vehicle id="agent_01" x="-94.05" y="5.89"/>
        <vehicle id="agent_03" x="51.62" y="-35.04"/>
    </timestep>
    <timestep time="2.00">
        <vehicle id="agent_01" x="-89.50" y="6.00"/>
        <vehicle id="agent_03" x="51.51" y="-31.64"/>
    </timestep>
    <timestep time="3.00">
        <vehicle id="agent_01" x="-83.13" y="6.16"/>
        <vehicle id="agent_02" x="-96.17" y="5.84"/>
        <vehicle id="agent_03" x="51.34" y="-26.65"/>
    </timestep>
    <timestep time="4.00">
        <vehicle id="agent_01" x="-74.64" y="6.37"/>
        <vehicle id="agent_02" x="-93.70" y="5.90"/>
        <vehicle id="agent_03" x="51.11" y="-19.80"/>
    </timestep>
    <timestep time="5.00">
        <vehicle id="agent_01" x="-63.65" y="6.64"/>
        <vehicle id="agent_02" x="-89.51" y="6.00"/>
        <vehicle id="agent_03" x="50.82" y="-11.18"/>
    </timestep>
    <timestep time="6.00">
        <vehicle id="agent_01" x="-52.07" y="6.98"/>
        <vehicle id="agent_02" x="-83.46" y="6.15"/>
        <vehicle id="agent_03" x="50.47" y="-0.70"/>
    </timestep>
    <timestep time="7.00">
        <vehicle id="agent_01" x="-43.16" y="12.79"/>
        <vehicle id="agent_02" x="-74.97" y="6.36"/>
        <vehicle id="agent_03" x="50.14" y="11.74"/>
    </timestep>
    <timestep time="8.00">
        <vehicle id="agent_01" x="-33.01" y="20.74"/>
        <vehicle id="agent_02" x="-64.14" y="6.63"/>
        <vehicle id="agent_03" x="50.00" y="25.52"/>
    </timestep>
    <timestep time="9.00">
        <vehicle id="agent_01" x="-22.03" y="29.34"/>
        <vehicle id="agent_02" x="-51.38" y="6.92"/>
        <vehicle id="agent_03" x="49.87" y="38.67"/>
    </timestep>
    <timestep time="10.00">
        <vehicle id="agent_01" x="-11.28" y="37.76"/>
        <vehicle id="agent_02" x="-38.35" y="6.95"/>
    </timestep>
    <timestep time="11.00">
        <vehicle id="agent_01" x="0.17" y="46.73"/>
        <vehicle id="agent_02" x="-25.93" y="6.95"/>
    </timestep>
    <timestep time="12.00">
        <vehicle id="agent_01" x="10.86" y="55.10"/>
        <vehicle id="agent_02" x="-14.01" y="6.95"/>
    </timestep>
    <timestep time="13.00">
        <vehicle id="agent_01" x="21.79" y="63.66"/>
        <vehicle id="agent_02" x="-1.56" y="6.95"/>
    </timestep>
    <timestep time="14.00">
        <vehicle id="agent_01" x="31.25" y="71.07"/>
        <vehicle id="agent_02" x="10.35" y="6.95"/>
    </timestep>
    <timestep time="15.00">
        <vehicle id="agent_01" x="37.56" y="76.01"/>
        <vehicle id="agent_02" x="22.64" y="6.95"/>
    </timestep>
    <timestep time="16.00">
        <vehicle id="agent_01" x="40.53" y="78.27"/>
        <vehicle id="agent_02" x="34.09" y="6.95"/>
    </timestep>
    <timestep time="17.00">
        <vehicle id="agent_01" x="43.24" y="77.32"/>
        <vehicle id="agent_02" x="41.36" y="6.95"/>
    </timestep>
    <timestep time="18.00">
        <vehicle id="agent_01" x="47.85" y="74.30"/>
        <vehicle id="agent_02" x="44.12" y="6.95"/>
    </timestep>
    <timestep time="19.00">
        <vehicle id="agent_01" x="54.03" y="70.26"/>
        <vehicle id="agent_02" x="45.16" y="6.95"/>
    </timestep>
    <timestep time="20.00">
        <vehicle id="agent_01" x="62.34" y="64.81"/>
        <vehicle id="agent_02" x="48.22" y="6.94"/>
    </timestep>
    <timestep time="21.00">
        <vehicle id="agent_01" x="72.51" y="58.16"/>
        <vehicle id="agent_02" x="53.24" y="6.93"/>
    </timestep>
    <timestep time="22.00">
        <vehicle id="agent_01" x="84.69" y="50.19"/>
        <vehicle id="agent_02" x="60.82" y="6.90"/>
    </timestep>
    <timestep time="23.00">
        <vehicle id="agent_01" x="96.71" y="42.32"/>
        <vehicle id="agent_02" x="69.79" y="6.86"/>
    </timestep>
    <timestep time="24.00">
        <vehicle id="agent_01" x="108.21" y="34.79"/>
        <vehicle id="agent_02" x="80.81" y="6.82"/>
    </timestep>
    <timestep time="25.00">
        <vehicle id="agent_01" x="120.49" y="26.75"/>
        <vehicle id="agent_02" x="92.89" y="6.77"/>
    </timestep>
    <timestep time="26.00">
        <vehicle id="agent_01" x="132.10" y="19.15"/>
        <vehicle id="agent_02" x="105.47" y="6.72"/>
    </timestep>
    <timestep time="27.00">
        <vehicle id="agent_01" x="140.33" y="13.76"/>
        <vehicle id="agent_02" x="118.28" y="6.67"/>
    </timestep>
    <timestep time="28.00">
        <vehicle id="agent_01" x="144.80" y="10.84"/>
        <vehicle id="agent_02" x="130.42" y="6.62"/>
    </timestep>
    <timestep time="29.00">
        <vehicle id="agent_01" x="145.50" y="10.38"/>
        <vehicle id="agent_02" x="142.26" y="6.57"/>
    </timestep>
    <timestep time="30.00">
        <vehicle id="agent_01" x="145.51" y="10.37"/>
        <vehicle id="agent_02" x="155.21" y="6.49"/>
    </timestep>
    <timestep time="31.00">
        <vehicle id="agent_01" x="145.51" y="10.37"/>
        <vehicle id="agent_02" x="168.15" y="6.32"/>
    </timestep>
    <timestep time="32.00">
        <vehicle id="agent_01" x="145.51" y="10.37"/>
        <vehicle id="agent_02" x="180.74" y="6.16"/>
    </timestep>
    <timestep time="33.00">
        <vehicle id="agent_01" x="145.52" y="10.37"/>
        <vehicle id="agent_02" x="192.55" y="6.01"/>
    </timestep>
    <timestep time="34.00">
        <vehicle id="agent_01" x="145.52" y="10.37"/>
        <vehicle id="agent_02" x="205.36" y="5.84"/>
    </timestep>
    <timestep time="35.00">
        <vehicle id="agent_01" x="145.52" y="10.37"/>
    </timestep>
    <timestep time="36.00">
        <vehicle id="agent_01" x="145.52" y="10.37"/>
    </timestep>
    <timestep time="37.00">
        <vehicle id="agent_01" x="145.52" y="10.37"/>
    </timestep>
    <timestep time="38.00">
        <vehicle id="agent_01" x="145.52" y="10.37"/>
    </timestep>
    <timestep time="39.00">
        <vehicle id="agent_01" x="145.52" y="10.37"/>
    </timestep>
    <timestep time="40.00">
        <vehicle id="agent_01" x="145.52" y="10.37"/>
    </timestep>
    <timestep time="41.00">
        <vehicle id="agent_01" x="145.52" y="10.37"/>
    </timestep>
    <timestep time="42.00">
        <vehicle id="agent_01" x="145.52" y="10.37"/>
    </timestep>
    <timestep time="43.00">
        <vehicle id="agent_01" x="145.52" y="10.37"/>
    </timestep>
    <timestep time="44.00">
        <vehicle id="agent_01" x="145.52" y="10.37"/>
    </timestep>
    <timestep time="45.00">
        <vehicle id="agent_01" x="145.52" y="10.37"/>
    </timestep>
    <timestep time="46.00">
        <vehicle id="agent_01" x="145.52" y="10.37"/>
    </timestep>
    <timestep time="47.00">
        <vehicle id="agent_01" x="145.52" y="10.37"/>
    </timestep>
    <timestep time="48.00">
        <vehicle id="agent_01" x="145.52" y="10.37"/>
    </timestep>
    <timestep time="49.00">
        <vehicle id="agent_01" x="147.06" y="9.22"/>
    </timestep>
    <timestep time="50.00">
        <vehicle id="agent_01" x="150.32" y="7.03"/>
    </timestep>
    <timestep time="51.00">
        <vehicle id="agent_01" x="156.03" y="6.48"/>
    </timestep>
    <timestep time="52.00">
        <vehicle id="agent_01" x="163.60" y="6.38"/>
    </timestep>
    <timestep time="53.00">
        <vehicle id="agent_01" x="173.17" y="6.26"/>
    </timestep>
    <timestep time="54.00">
        <vehicle id="agent_01" x="184.63" y="6.11"/>
    </timestep>
    <timestep time="55.00">
        <vehicle id="agent_01" x="198.32" y="5.93"/>
    </timestep>
    <timestep time="56.00"/>
    <timestep time="57.00"/>
    <timestep time="58.00"/>
    <timestep time="59.00"/>
    <timestep time="60.00"/>
    <timestep time="61.00"/>
    <timestep time="62.00"/>
    <timestep time="63.00"/>
    <timestep time="64.00"/>
    <timestep time="65.00"/>
    <timestep time="66.00"/>
    <timestep time="67.00"/>
    <timestep time="68.00"/>
    <timestep time="69.00"/>
    <timestep time="70.00"/>
    <timestep time="71.00"/>
    <timestep time="72.00"/>
    <timestep time="73.00"/>
    <timestep time="74.00"/>
    <timestep time="75.00"/>
    <timestep time="76.00"/>
    <timestep time="77.00"/>
    <timestep time="78.00"/>
    <timestep time="79.00"/>
    <timestep time="80.00"/>
    <timestep time="81.00"/>
    <timestep time="82.00"/>
    <timestep time="83.00"/>
    <timestep time="84.00"/>
    <timestep time="85.00"/>
    <timestep time="86.00"/>
    <timestep time="87.00"/>
    <timestep time="88.00"/>
    <timestep time="89.00"/>
    <timestep time="90.00"/>
    <timestep time="91.00"/>
    <timestep time="92.00"/>
    <timestep time="93.00"/>
    <timestep time="94.00"/>
    <timestep time="95.00"/>
    <timestep time="96.00"/>
    <timestep time="97.00"/>
    <timestep time="98.00"/>
    <timestep time="99.00"/>
    <timestep time="100.00"/>
    <timestep time="101.00"/>
    <timestep time="102.00"/>
    <timestep time="103.00"/>
    <timestep time="104.00"/>
    <timestep time="105.00"/>
    <timestep time="106.00"/>
    <timestep time="107.00"/>
</fcd-export>
