<?xml version="1.0" encoding="UTF-8"?>

<!-- generated on 2026-03-28T21:32:24.258033+01:00 by Eclipse SUMO GUI 1.26.0
<sumoConfiguration xmlns:xsi="http://www.w3.org/2001/XMLSchema-instance" xsi:noNamespaceSchemaLocation="http://sumo.dlr.de/xsd/sumoConfiguration.xsd">

    <input>
        <net-file value="input.net.xml"/>
        <route-files value="output_shortest_path.routes.xml"/>
    </input>

    <output>
        <fcd-output value="fcd-export.parquet"/>
    </output>

    <fcd_device>
        <device.fcd.explicit value="agent_01,agent_02,agent_03"/>
    </fcd_device>

</sumoConfiguration>
-->

<fcd-export xmlns:xsi="http://www.w3.org/2001/XMLSchema-instance" xsi:noNamespaceSchemaLocation="http://sumo.dlr.de/xsd/fcd_file.xsd">
    <timestep time="0.00">
        <vehicle id="agent_01" x="-96.17" y="5.84" angle="88.59" type="DEFAULT_VEHTYPE" speed="0.00" pos="5.10" lane="E11_0" slope="0.00"/>
        <vehicle id="agent_03" x="51.67" y="-36.38" angle="358.07" type="DEFAULT_VEHTYPE" speed="0.00" pos="5.10" lane="E7_0" slope="0.00"/>
    </timestep>
    <timestep time="1.00">
        <vehicle id="agent_01" x="-94.05" y="5.89" angle="88.59" type="DEFAULT_VEHTYPE" speed="2.12" pos="7.22" lane="E11_0" slope="0.00"/>
        <vehicle id="agent_03" x="51.62" y="-35.04" angle="358.07" type="DEFAULT_VEHTYPE" speed="1.34" pos="6.44" lane="E7_0" slope="0.00"/>
    </timestep>
    <timestep time="2.00">
        <vehicle id="agent_01" x="-89.50" y="6.00" angle="88.59" type="DEFAULT_VEHTYPE" speed="4.55" pos="11.77" lane="E11_0" slope="0.00"/>
        <vehicle id="agent_03" x="51.51" y="-31.64" angle="358.07" type="DEFAULT_VEHTYPE" speed="3.40" pos="9.84" lane="E7_0" slope="0.00"/>
    </timestep>
    <timestep time="3.00">
        <vehicle id="agent_01" x="-83.13" y="6.16" angle="88.59" type="DEFAULT_VEHTYPE" speed="6.38" pos="18.15" lane="E11_0" slope="0.00"/>
        <vehicle id="agent_02" x="-96.17" y="5.84" angle="88.59" type="DEFAULT_VEHTYPE" speed="0.00" pos="5.10" lane="E11_0" slope="0.00"/>
        <vehicle id="agent_03" x="51.34" y="-26.65" angle="358.07" type="DEFAULT_VEHTYPE" speed="5.00" pos="14.84" lane="E7_0" slope="0.00"/>
    </timestep>
    <timestep time="4.00">
        <vehicle id="agent_01" x="-74.64" y="6.37" angle="88.59" type="DEFAULT_VEHTYPE" speed="8.49" pos="26.64" lane="E11_0" slope="0.00"/>
        <vehicle id="agent_02" x="-93.70" y="5.90" angle="88.59" type="DEFAULT_VEHTYPE" speed="2.47" pos="7.57" lane="E11_0" slope="0.00"/>
        <vehicle id="agent_03" x="51.11" y="-19.80" angle="358.07" type="DEFAULT_VEHTYPE" speed="6.86" pos="21.69" lane="E7_0" slope="0.00"/>
    </timestep>
    <timestep time="5.00">
        <vehicle id="agent_01" x="-63.65" y="6.64" angle="88.59" type="DEFAULT_VEHTYPE" speed="11.00" pos="37.63" lane="E11_0" slope="0.00"/>
        <vehicle id="agent_02" x="-89.51" y="6.00" angle="88.59" type="DEFAULT_VEHTYPE" speed="4.20" pos="11.77" lane="E11_0" slope="0.00"/>
        <vehicle id="agent_03" x="50.82" y="-11.18" angle="358.07" type="DEFAULT_VEHTYPE" speed="8.62" pos="30.31" lane="E7_0" slope="0.00"/>
    </timestep>
    <timestep time="6.00">
        <vehicle id="agent_01" x="-52.07" y="6.98" angle="87.90" type="DEFAULT_VEHTYPE" speed="11.59" pos="0.57" lane=":J5_1_0" slope="0.00"/>
        <vehicle id="agent_02" x="-83.46" y="6.15" angle="88.59" type="DEFAULT_VEHTYPE" speed="6.05" pos="17.82" lane="E11_0" slope="0.00"/>
        <vehicle id="agent_03" x="50.47" y="-0.70" angle="358.07" type="DEFAULT_VEHTYPE" speed="10.49" pos="40.80" lane="E7_0" slope="0.00"/>
    </timestep>
    <timestep time="7.00">
        <vehicle id="agent_01" x="-43.16" y="12.79" angle="50.85" type="DEFAULT_VEHTYPE" speed="10.87" pos="3.34" lane="E9_0" slope="0.00"/>
        <vehicle id="agent_02" x="-74.97" y="6.36" angle="88.59" type="DEFAULT_VEHTYPE" speed="8.49" pos="26.31" lane="E11_0" slope="0.00"/>
        <vehicle id="agent_03" x="50.14" y="11.74" angle="358.58" type="DEFAULT_VEHTYPE" speed="12.45" pos="10.45" lane=":J6_0_0" slope="0.00"/>
    </timestep>
    <timestep time="8.00">
        <vehicle id="agent_01" x="-33.01" y="20.74" angle="51.93" type="DEFAULT_VEHTYPE" speed="12.89" pos="16.23" lane="E9_0" slope="0.00"/>
        <vehicle id="agent_02" x="-64.14" y="6.63" angle="88.59" type="DEFAULT_VEHTYPE" speed="10.83" pos="37.14" lane="E11_0" slope="0.00"/>
        <vehicle id="agent_03" x="50.00" y="25.52" angle="359.45" type="DEFAULT_VEHTYPE" speed="13.77" pos="12.95" lane="E8_0" slope="0.00"/>
    </timestep>
    <timestep time="9.00">
        <vehicle id="agent_01" x="-22.03" y="29.34" angle="51.93" type="DEFAULT_VEHTYPE" speed="13.95" pos="30.18" lane="E9_0" slope="0.00"/>
        <vehicle id="agent_02" x="-51.38" y="6.92" angle="88.87" type="DEFAULT_VEHTYPE" speed="12.77" pos="1.25" lane=":J5_0_0" slope="0.00"/>
        <vehicle id="agent_03" x="49.87" y="38.67" angle="359.45" type="DEFAULT_VEHTYPE" speed="13.15" pos="26.10" lane="E8_0" slope="0.00"/>
    </timestep>
    <timestep time="10.00">
        <vehicle id="agent_01" x="-11.28" y="37.76" angle="51.93" type="DEFAULT_VEHTYPE" speed="13.66" pos="43.83" lane="E9_0" slope="0.00"/>
        <vehicle id="agent_02" x="-38.35" y="6.95" angle="90.00" type="DEFAULT_VEHTYPE" speed="13.03" pos="6.13" lane="E5_0" slope="0.00"/>
    </timestep>
    <timestep time="11.00">
        <vehicle id="agent_01" x="0.17" y="46.73" angle="51.93" type="DEFAULT_VEHTYPE" speed="14.55" pos="58.38" lane="E9_0" slope="0.00"/>
        <vehicle id="agent_02" x="-25.93" y="6.95" angle="90.00" type="DEFAULT_VEHTYPE" speed="12.42" pos="18.55" lane="E5_0" slope="0.00"/>
    </timestep>
    <timestep time="12.00">
        <vehicle id="agent_01" x="10.86" y="55.10" angle="51.93" type="DEFAULT_VEHTYPE" speed="13.57" pos="71.95" lane="E9_0" slope="0.00"/>
        <vehicle id="agent_02" x="-14.01" y="6.95" angle="90.00" type="DEFAULT_VEHTYPE" speed="11.93" pos="30.47" lane="E5_0" slope="0.00"/>
    </timestep>
    <timestep time="13.00">
        <vehicle id="agent_01" x="21.79" y="63.66" angle="51.93" type="DEFAULT_VEHTYPE" speed="13.89" pos="85.84" lane="E9_0" slope="0.00"/>
        <vehicle id="agent_02" x="-1.56" y="6.95" angle="90.00" type="DEFAULT_VEHTYPE" speed="12.44" pos="42.92" lane="E5_0" slope="0.00"/>
    </timestep>
    <timestep time="14.00">
        <vehicle id="agent_01" x="31.25" y="71.07" angle="51.93" type="DEFAULT_VEHTYPE" speed="12.02" pos="97.85" lane="E9_0" slope="0.00"/>
        <vehicle id="agent_02" x="10.35" y="6.95" angle="90.00" type="DEFAULT_VEHTYPE" speed="11.92" pos="54.83" lane="E5_0" slope="0.00"/>
    </timestep>
    <timestep time="15.00">
        <vehicle id="agent_01" x="37.56" y="76.01" angle="51.93" type="DEFAULT_VEHTYPE" speed="8.01" pos="105.86" lane="E9_0" slope="0.00"/>
        <vehicle id="agent_02" x="22.64" y="6.95" angle="90.00" type="DEFAULT_VEHTYPE" speed="12.29" pos="67.12" lane="E5_0" slope="0.00"/>
    </timestep>
    <timestep time="16.00">
        <vehicle id="agent_01" x="40.53" y="78.27" angle="52.59" type="DEFAULT_VEHTYPE" speed="3.74" pos="0.43" lane=":J10_0_0" slope="0.00"/>
        <vehicle id="agent_02" x="34.09" y="6.95" angle="90.00" type="DEFAULT_VEHTYPE" speed="11.45" pos="78.57" lane="E5_0" slope="0.00"/>
    </timestep>
    <timestep time="17.00">
        <vehicle id="agent_01" x="43.24" y="77.32" angle="87.03" type="DEFAULT_VEHTYPE" speed="3.03" pos="1.45" lane="E10_0" slope="0.00"/>
        <vehicle id="agent_02" x="41.36" y="6.95" angle="90.00" type="DEFAULT_VEHTYPE" speed="7.27" pos="85.84" lane="E5_0" slope="0.00"/>
    </timestep>
    <timestep time="18.00">
        <vehicle id="agent_01" x="47.85" y="74.30" angle="123.21" type="DEFAULT_VEHTYPE" speed="5.52" pos="6.97" lane="E10_0" slope="0.00"/>
        <vehicle id="agent_02" x="44.12" y="6.95" angle="90.00" type="DEFAULT_VEHTYPE" speed="2.77" pos="88.60" lane="E5_0" slope="0.00"/>
    </timestep>
    <timestep time="19.00">
        <vehicle id="agent_01" x="54.03" y="70.26" angle="123.21" type="DEFAULT_VEHTYPE" speed="7.38" pos="14.36" lane="E10_0" slope="0.00"/>
        <vehicle id="agent_02" x="45.16" y="6.95" angle="90.02" type="DEFAULT_VEHTYPE" speed="1.03" pos="0.60" lane=":J6_1_0" slope="0.00"/>
    </timestep>
    <timestep time="20.00">
        <vehicle id="agent_01" x="62.34" y="64.81" angle="123.21" type="DEFAULT_VEHTYPE" speed="9.93" pos="24.29" lane="E10_0" slope="0.00"/>
        <vehicle id="agent_02" x="48.22" y="6.94" angle="90.11" type="DEFAULT_VEHTYPE" speed="3.06" pos="3.66" lane=":J6_1_0" slope="0.00"/>
    </timestep>
    <timestep time="21.00">
        <vehicle id="agent_01" x="72.51" y="58.16" angle="123.21" type="DEFAULT_VEHTYPE" speed="12.15" pos="36.44" lane="E10_0" slope="0.00"/>
        <vehicle id="agent_02" x="53.24" y="6.93" angle="90.15" type="DEFAULT_VEHTYPE" speed="5.02" pos="8.68" lane=":J6_1_0" slope="0.00"/>
    </timestep>
    <timestep time="22.00">
        <vehicle id="agent_01" x="84.69" y="50.19" angle="123.21" type="DEFAULT_VEHTYPE" speed="14.56" pos="51.00" lane="E10_0" slope="0.00"/>
        <vehicle id="agent_02" x="60.82" y="6.90" angle="90.23" type="DEFAULT_VEHTYPE" speed="7.58" pos="4.94" lane="E6_0" slope="0.00"/>
    </timestep>
    <timestep time="23.00">
        <vehicle id="agent_01" x="96.71" y="42.32" angle="123.21" type="DEFAULT_VEHTYPE" speed="14.37" pos="65.36" lane="E10_0" slope="0.00"/>
        <vehicle id="agent_02" x="69.79" y="6.86" angle="90.23" type="DEFAULT_VEHTYPE" speed="8.98" pos="13.92" lane="E6_0" slope="0.00"/>
    </timestep>
    <timestep time="24.00">
        <vehicle id="agent_01" x="108.21" y="34.79" angle="123.21" type="DEFAULT_VEHTYPE" speed="13.75" pos="79.11" lane="E10_0" slope="0.00"/>
        <vehicle id="agent_02" x="80.81" y="6.82" angle="90.23" type="DEFAULT_VEHTYPE" speed="11.02" pos="24.94" lane="E6_0" slope="0.00"/>
    </timestep>
    <timestep time="25.00">
        <vehicle id="agent_01" x="120.49" y="26.75" angle="123.21" type="DEFAULT_VEHTYPE" speed="14.68" pos="93.79" lane="E10_0" slope="0.00"/>
        <vehicle id="agent_02" x="92.89" y="6.77" angle="90.23" type="DEFAULT_VEHTYPE" speed="12.07" pos="37.01" lane="E6_0" slope="0.00"/>
    </timestep>
    <timestep time="26.00">
        <vehicle id="agent_01" x="132.10" y="19.15" angle="123.21" type="DEFAULT_VEHTYPE" speed="13.88" pos="107.67" lane="E10_0" slope="0.00"/>
        <vehicle id="agent_02" x="105.47" y="6.72" angle="90.23" type="DEFAULT_VEHTYPE" speed="12.58" pos="49.59" lane="E6_0" slope="0.00"/>
    </timestep>
    <timestep time="27.00">
        <vehicle id="agent_01" x="140.33" y="13.76" angle="123.21" type="DEFAULT_VEHTYPE" speed="9.84" pos="117.50" lane="E10_0" slope="0.00"/>
        <vehicle id="agent_02" x="118.28" y="6.67" angle="90.23" type="DEFAULT_VEHTYPE" speed="12.81" pos="62.41" lane="E6_0" slope="0.00"/>
    </timestep>
    <timestep time="28.00">
        <vehicle id="agent_01" x="144.80" y="10.84" angle="123.21" type="DEFAULT_VEHTYPE" speed="5.34" pos="122.84" lane="E10_0" slope="0.00"/>
        <vehicle id="agent_02" x="130.42" y="6.62" angle="90.23" type="DEFAULT_VEHTYPE" speed="12.14" pos="74.55" lane="E6_0" slope="0.00"/>
    </timestep>
    <timestep time="29.00">
        <vehicle id="agent_01" x="145.50" y="10.38" angle="123.21" type="DEFAULT_VEHTYPE" speed="0.84" pos="123.68" lane="E10_0" slope="0.00"/>
        <vehicle id="agent_02" x="142.26" y="6.57" angle="90.23" type="DEFAULT_VEHTYPE" speed="11.84" pos="86.39" lane="E6_0" slope="0.00"/>
    </timestep>
    <timestep time="30.00">
        <vehicle id="agent_01" x="145.51" y="10.37" angle="123.21" type="DEFAULT_VEHTYPE" speed="0.02" pos="123.69" lane="E10_0" slope="0.00"/>
        <vehicle id="agent_02" x="155.21" y="6.49" angle="90.48" type="DEFAULT_VEHTYPE" speed="12.94" pos="1.87" lane="E12_0" slope="0.00"/>
    </timestep>
    <timestep time="31.00">
        <vehicle id="agent_01" x="145.51" y="10.37" angle="123.21" type="DEFAULT_VEHTYPE" speed="0.01" pos="123.70" lane="E10_0" slope="0.00"/>
        <vehicle id="agent_02" x="168.15" y="6.32" angle="90.74" type="DEFAULT_VEHTYPE" speed="12.94" pos="14.81" lane="E12_0" slope="0.00"/>
    </timestep>
    <timestep time="32.00">
        <vehicle id="agent_01" x="145.51" y="10.37" angle="123.21" type="DEFAULT_VEHTYPE" speed="0.00" pos="123.70" lane="E10_0" slope="0.00"/>
        <vehicle id="agent_02" x="180.74" y="6.16" angle="90.74" type="DEFAULT_VEHTYPE" speed="12.58" pos="27.40" lane="E12_0" slope="0.00"/>
    </timestep>
    <timestep time="33.00">
        <vehicle id="agent_01" x="145.52" y="10.37" angle="123.21" type="DEFAULT_VEHTYPE" speed="0.00" pos="123.70" lane="E10_0" slope="0.00"/>
        <vehicle id="agent_02" x="192.55" y="6.01" angle="90.74" type="DEFAULT_VEHTYPE" speed="11.81" pos="39.21" lane="E12_0" slope="0.00"/>
    </timestep>
    <timestep time="34.00">
        <vehicle id="agent_01" x="145.52" y="10.37" angle="123.21" type="DEFAULT_VEHTYPE" speed="0.00" pos="123.70" lane="E10_0" slope="0.00"/>
        <vehicle id="agent_02" x="205.36" y="5.84" angle="90.74" type="DEFAULT_VEHTYPE" speed="12.82" pos="52.02" lane="E12_0" slope="0.00"/>
    </timestep>
    <timestep time="35.00">
        <vehicle id="agent_01" x="145.52" y="10.37" angle="123.21" type="DEFAULT_VEHTYPE" speed="0.00" pos="123.70" lane="E10_0" slope="0.00"/>
    </timestep>
    <timestep time="36.00">
        <vehicle id="agent_01" x="145.52" y="10.37" angle="123.21" type="DEFAULT_VEHTYPE" speed="0.00" pos="123.70" lane="E10_0" slope="0.00"/>
    </timestep>
    <timestep time="37.00">
        <vehicle id="agent_01" x="145.52" y="10.37" angle="123.21" type="DEFAULT_VEHTYPE" speed="0.00" pos="123.70" lane="E10_0" slope="0.00"/>
    </timestep>
    <timestep time="38.00">
        <vehicle id="agent_01" x="145.52" y="10.37" angle="123.21" type="DEFAULT_VEHTYPE" speed="0.00" pos="123.70" lane="E10_0" slope="0.00"/>
    </timestep>
    <timestep time="39.00">
        <vehicle id="agent_01" x="145.52" y="10.37" angle="123.21" type="DEFAULT_VEHTYPE" speed="0.00" pos="123.70" lane="E10_0" slope="0.00"/>
    </timestep>
    <timestep time="40.00">
        <vehicle id="agent_01" x="145.52" y="10.37" angle="123.21" type="DEFAULT_VEHTYPE" speed="0.00" pos="123.70" lane="E10_0" slope="0.00"/>
    </timestep>
    <timestep time="41.00">
        <vehicle id="agent_01" x="145.52" y="10.37" angle="123.21" type="DEFAULT_VEHTYPE" speed="0.00" pos="123.70" lane="E10_0" slope="0.00"/>
    </timestep>
    <timestep time="42.00">
        <vehicle id="agent_01" x="145.52" y="10.37" angle="123.21" type="DEFAULT_VEHTYPE" speed="0.00" pos="123.70" lane="E10_0" slope="0.00"/>
    </timestep>
    <timestep time="43.00">
        <vehicle id="agent_01" x="145.52" y="10.37" angle="123.21" type="DEFAULT_VEHTYPE" speed="0.00" pos="123.70" lane="E10_0" slope="0.00"/>
    </timestep>
    <timestep time="44.00">
        <vehicle id="agent_01" x="145.52" y="10.37" angle="123.21" type="DEFAULT_VEHTYPE" speed="0.00" pos="123.70" lane="E10_0" slope="0.00"/>
    </timestep>
    <timestep time="45.00">
        <vehicle id="agent_01" x="145.52" y="10.37" angle="123.21" type="DEFAULT_VEHTYPE" speed="0.00" pos="123.70" lane="E10_0" slope="0.00"/>
    </timestep>
    <timestep time="46.00">
        <vehicle id="agent_01" x="145.52" y="10.37" angle="123.21" type="DEFAULT_VEHTYPE" speed="0.00" pos="123.70" lane="E10_0" slope="0.00"/>
    </timestep>
    <timestep time="47.00">
        <vehicle id="agent_01" x="145.52" y="10.37" angle="123.21" type="DEFAULT_VEHTYPE" speed="0.00" pos="123.70" lane="E10_0" slope="0.00"/>
    </timestep>
    <timestep time="48.00">
        <vehicle id="agent_01" x="145.52" y="10.37" angle="123.21" type="DEFAULT_VEHTYPE" speed="0.00" pos="123.70" lane="E10_0" slope="0.00"/>
    </timestep>
    <timestep time="49.00">
        <vehicle id="agent_01" x="147.06" y="9.22" angle="124.43" type="DEFAULT_VEHTYPE" speed="1.92" pos="1.82" lane=":J7_1_0" slope="0.00"/>
    </timestep>
    <timestep time="50.00">
        <vehicle id="agent_01" x="150.32" y="7.03" angle="124.50" type="DEFAULT_VEHTYPE" speed="3.94" pos="5.77" lane=":J7_1_0" slope="0.00"/>
    </timestep>
    <timestep time="51.00">
        <vehicle id="agent_01" x="156.03" y="6.48" angle="93.43" type="DEFAULT_VEHTYPE" speed="5.78" pos="2.69" lane="E12_0" slope="0.00"/>
    </timestep>
    <timestep time="52.00">
        <vehicle id="agent_01" x="163.60" y="6.38" angle="90.74" type="DEFAULT_VEHTYPE" speed="7.57" pos="10.26" lane="E12_0" slope="0.00"/>
    </timestep>
    <timestep time="53.00">
        <vehicle id="agent_01" x="173.17" y="6.26" angle="90.74" type="DEFAULT_VEHTYPE" speed="9.57" pos="19.83" lane="E12_0" slope="0.00"/>
    </timestep>
    <timestep time="54.00">
        <vehicle id="agent_01" x="184.63" y="6.11" angle="90.74" type="DEFAULT_VEHTYPE" speed="11.46" pos="31.29" lane="E12_0" slope="0.00"/>
    </timestep>
    <timestep time="55.00">
        <vehicle id="agent_01" x="198.32" y="5.93" angle="90.74" type="DEFAULT_VEHTYPE" speed="13.69" pos="44.98" lane="E12_0" slope="0.00"/>
    </timestep>
    <timestep time="56.00"/>
    <timestep time="57.00"/>
    <timestep time="58.00"/>
    <timestep time="59.00"/>
    <timestep time="60.00"/>
    <timestep time="61.00"/>
    <timestep time="62.00"/>
    <timestep time="63.00"/>
    <timestep time="64.00"/>
    <timestep time="65.00"/>
    <timestep time="66.00"/>
    <timestep time="67.00"/>
    <timestep time="68.00"/>
    <timestep time="69.00"/>
    <timestep time="70.00"/>
    <timestep time="71.00"/>
    <timestep time="72.00"/>
    <timestep time="73.00"/>
    <timestep time="74.00"/>
    <timestep time="75.00"/>
    <timestep time="76.00"/>
    <timestep time="77.00"/>
    <timestep time="78.00"/>
    <timestep time="79.00"/>
    <timestep time="80.00"/>
    <timestep time="81.00"/>
    <timestep time="82.00"/>
    <timestep time="83.00"/>
    <timestep time="84.00"/>
    <timestep time="85.00"/>
    <timestep time="86.00"/>
    <timestep time="87.00"/>
    <timestep time="88.00"/>
    <timestep time="89.00"/>
    <timestep time="90.00"/>
    <timestep time="91.00"/>
    <timestep time="92.00"/>
    <timestep time="93.00"/>
    <timestep time="94.00"/>
    <timestep time="95.00"/>
    <timestep time="96.00"/>
    <timestep time="97.00"/>
    <timestep time="98.00"/>
    <timestep time="99.00"/>
    <timestep time="100.00"/>
    <timestep time="101.00"/>
    <timestep time="102.00"/>
    <timestep time="103.00"/>
    <timestep time="104.00"/>
    <timestep time="105.00"/>
    <timestep time="106.00"/>
    <timestep time="107.00"/>
</fcd-export>
