<?xml version="1.0" encoding="UTF-8"?>

<!-- generated on 2026-03-26T19:42:55.814135+01:00 by Eclipse SUMO GUI 1.26.0
<sumoConfiguration xmlns:xsi="http://www.w3.org/2001/XMLSchema-instance" xsi:noNamespaceSchemaLocation="http://sumo.dlr.de/xsd/sumoConfiguration.xsd">

    <input>
        <net-file value="input.net.xml"/>
        <route-files value="output_shortest_path.routes.xml"/>
    </input>

    <output>
        <output-prefix value="TIME"/>
        <netstate-dump value="netstate.xml"/>
    </output>

    <time>
        <step-length value="0.1"/>
    </time>

    <gui_only>
        <delay value="500"/>
    </gui_only>

</sumoConfiguration>
-->

<netstate xmlns:xsi="http://www.w3.org/2001/XMLSchema-instance" xsi:noNamespaceSchemaLocation="http://sumo.dlr.de/xsd/netstate_file.xsd">
    <timestep time="0.00">
        <edge id="E11">
            <lane id="E11_0">
                <vehicle id="f_0.0" pos="5.10" speed="0.00"/>
            </lane>
        </edge>
        <edge id="E7">
            <lane id="E7_0">
                <vehicle id="f_1.0" pos="5.10" speed="0.00"/>
            </lane>
        </edge>
    </timestep>
    <timestep time="0.10">
        <edge id="E11">
            <lane id="E11_0">
                <vehicle id="f_0.0" pos="5.13" speed="0.26"/>
            </lane>
        </edge>
        <edge id="E7">
            <lane id="E7_0">
                <vehicle id="f_1.0" pos="5.12" speed="0.25"/>
            </lane>
        </edge>
    </timestep>
    <timestep time="0.20">
        <edge id="E11">
            <lane id="E11_0">
                <vehicle id="f_0.0" pos="5.18" speed="0.51"/>
            </lane>
        </edge>
        <edge id="E7">
            <lane id="E7_0">
                <vehicle id="f_1.0" pos="5.17" speed="0.50"/>
            </lane>
        </edge>
    </timestep>
    <timestep time="0.30">
        <edge id="E11">
            <lane id="E11_0">
                <vehicle id="f_0.0" pos="5.25" speed="0.75"/>
            </lane>
        </edge>
        <edge id="E7">
            <lane id="E7_0">
                <vehicle id="f_1.0" pos="5.25" speed="0.73"/>
            </lane>
        </edge>
    </timestep>
    <timestep time="0.40">
        <edge id="E11">
            <lane id="E11_0">
                <vehicle id="f_0.0" pos="5.35" speed="0.99"/>
            </lane>
        </edge>
        <edge id="E7">
            <lane id="E7_0">
                <vehicle id="f_1.0" pos="5.34" speed="0.96"/>
            </lane>
        </edge>
    </timestep>
    <timestep time="0.50">
        <edge id="E11">
            <lane id="E11_0">
                <vehicle id="f_0.0" pos="5.47" speed="1.24"/>
            </lane>
        </edge>
        <edge id="E7">
            <lane id="E7_0">
                <vehicle id="f_1.0" pos="5.46" speed="1.22"/>
            </lane>
        </edge>
    </timestep>
    <timestep time="0.60">
        <edge id="E11">
            <lane id="E11_0">
                <vehicle id="f_0.0" pos="5.62" speed="1.50"/>
            </lane>
        </edge>
        <edge id="E7">
            <lane id="E7_0">
                <vehicle id="f_1.0" pos="5.61" speed="1.43"/>
            </lane>
        </edge>
    </timestep>
    <timestep time="0.70">
        <edge id="E11">
            <lane id="E11_0">
                <vehicle id="f_0.0" pos="5.79" speed="1.70"/>
            </lane>
        </edge>
        <edge id="E7">
            <lane id="E7_0">
                <vehicle id="f_1.0" pos="5.77" speed="1.63"/>
            </lane>
        </edge>
    </timestep>
    <timestep time="0.80">
        <edge id="E11">
            <lane id="E11_0">
                <vehicle id="f_0.0" pos="5.99" speed="1.95"/>
            </lane>
        </edge>
        <edge id="E7">
            <lane id="E7_0">
                <vehicle id="f_1.0" pos="5.96" speed="1.84"/>
            </lane>
        </edge>
    </timestep>
    <timestep time="0.90">
        <edge id="E11">
            <lane id="E11_0">
                <vehicle id="f_0.0" pos="6.20" speed="2.15"/>
            </lane>
        </edge>
        <edge id="E7">
            <lane id="E7_0">
                <vehicle id="f_1.0" pos="6.16" speed="2.09"/>
            </lane>
        </edge>
    </timestep>
    <timestep time="1.00">
        <edge id="E11">
            <lane id="E11_0">
                <vehicle id="f_0.0" pos="6.44" speed="2.39"/>
            </lane>
        </edge>
        <edge id="E7">
            <lane id="E7_0">
                <vehicle id="f_1.0" pos="6.39" speed="2.29"/>
            </lane>
        </edge>
    </timestep>
    <timestep time="1.10">
        <edge id="E11">
            <lane id="E11_0">
                <vehicle id="f_0.0" pos="6.70" speed="2.61"/>
            </lane>
        </edge>
        <edge id="E7">
            <lane id="E7_0">
                <vehicle id="f_1.0" pos="6.64" speed="2.50"/>
            </lane>
        </edge>
    </timestep>
    <timestep time="1.20">
        <edge id="E11">
            <lane id="E11_0">
                <vehicle id="f_0.0" pos="6.99" speed="2.85"/>
            </lane>
        </edge>
        <edge id="E7">
            <lane id="E7_0">
                <vehicle id="f_1.0" pos="6.91" speed="2.70"/>
            </lane>
        </edge>
    </timestep>
    <timestep time="1.30">
        <edge id="E11">
            <lane id="E11_0">
                <vehicle id="f_0.0" pos="7.29" speed="3.02"/>
            </lane>
        </edge>
        <edge id="E7">
            <lane id="E7_0">
                <vehicle id="f_1.0" pos="7.20" speed="2.84"/>
            </lane>
        </edge>
    </timestep>
    <timestep time="1.40">
        <edge id="E11">
            <lane id="E11_0">
                <vehicle id="f_0.0" pos="7.62" speed="3.26"/>
            </lane>
        </edge>
        <edge id="E7">
            <lane id="E7_0">
                <vehicle id="f_1.0" pos="7.49" speed="2.97"/>
            </lane>
        </edge>
    </timestep>
    <timestep time="1.50">
        <edge id="E11">
            <lane id="E11_0">
                <vehicle id="f_0.0" pos="7.96" speed="3.46"/>
            </lane>
        </edge>
        <edge id="E7">
            <lane id="E7_0">
                <vehicle id="f_1.0" pos="7.82" speed="3.21"/>
            </lane>
        </edge>
    </timestep>
    <timestep time="1.60">
        <edge id="E11">
            <lane id="E11_0">
                <vehicle id="f_0.0" pos="8.32" speed="3.59"/>
            </lane>
        </edge>
        <edge id="E7">
            <lane id="E7_0">
                <vehicle id="f_1.0" pos="8.16" speed="3.43"/>
            </lane>
        </edge>
    </timestep>
    <timestep time="1.70">
        <edge id="E11">
            <lane id="E11_0">
                <vehicle id="f_0.0" pos="8.71" speed="3.85"/>
            </lane>
        </edge>
        <edge id="E7">
            <lane id="E7_0">
                <vehicle id="f_1.0" pos="8.52" speed="3.64"/>
            </lane>
        </edge>
    </timestep>
    <timestep time="1.80">
        <edge id="E11">
            <lane id="E11_0">
                <vehicle id="f_0.0" pos="9.12" speed="4.10"/>
            </lane>
        </edge>
        <edge id="E7">
            <lane id="E7_0">
                <vehicle id="f_1.0" pos="8.90" speed="3.78"/>
            </lane>
        </edge>
    </timestep>
    <timestep time="1.90">
        <edge id="E11">
            <lane id="E11_0">
                <vehicle id="f_0.0" pos="9.54" speed="4.23"/>
            </lane>
        </edge>
        <edge id="E7">
            <lane id="E7_0">
                <vehicle id="f_1.0" pos="9.30" speed="4.00"/>
            </lane>
        </edge>
    </timestep>
    <timestep time="2.00">
        <edge id="E11">
            <lane id="E11_0">
                <vehicle id="f_0.0" pos="9.98" speed="4.37"/>
            </lane>
        </edge>
        <edge id="E7">
            <lane id="E7_0">
                <vehicle id="f_1.0" pos="9.72" speed="4.18"/>
            </lane>
        </edge>
    </timestep>
    <timestep time="2.10">
        <edge id="E11">
            <lane id="E11_0">
                <vehicle id="f_0.0" pos="10.43" speed="4.54"/>
            </lane>
        </edge>
        <edge id="E7">
            <lane id="E7_0">
                <vehicle id="f_1.0" pos="10.15" speed="4.37"/>
            </lane>
        </edge>
    </timestep>
    <timestep time="2.20">
        <edge id="E11">
            <lane id="E11_0">
                <vehicle id="f_0.0" pos="10.91" speed="4.79"/>
            </lane>
        </edge>
        <edge id="E7">
            <lane id="E7_0">
                <vehicle id="f_1.0" pos="10.61" speed="4.55"/>
            </lane>
        </edge>
    </timestep>
    <timestep time="2.30">
        <edge id="E11">
            <lane id="E11_0">
                <vehicle id="f_0.0" pos="11.42" speed="5.05"/>
            </lane>
        </edge>
        <edge id="E7">
            <lane id="E7_0">
                <vehicle id="f_1.0" pos="11.08" speed="4.73"/>
            </lane>
        </edge>
    </timestep>
    <timestep time="2.40">
        <edge id="E11">
            <lane id="E11_0">
                <vehicle id="f_0.0" pos="11.94" speed="5.23"/>
            </lane>
        </edge>
        <edge id="E7">
            <lane id="E7_0">
                <vehicle id="f_1.0" pos="11.57" speed="4.93"/>
            </lane>
        </edge>
    </timestep>
    <timestep time="2.50">
        <edge id="E11">
            <lane id="E11_0">
                <vehicle id="f_0.0" pos="12.47" speed="5.36"/>
            </lane>
        </edge>
        <edge id="E7">
            <lane id="E7_0">
                <vehicle id="f_1.0" pos="12.09" speed="5.13"/>
            </lane>
        </edge>
    </timestep>
    <timestep time="2.60">
        <edge id="E11">
            <lane id="E11_0">
                <vehicle id="f_0.1" pos="5.10" speed="0.00"/>
                <vehicle id="f_0.0" pos="13.03" speed="5.55"/>
            </lane>
        </edge>
        <edge id="E7">
            <lane id="E7_0">
                <vehicle id="f_1.0" pos="12.62" speed="5.38"/>
            </lane>
        </edge>
    </timestep>
    <timestep time="2.70">
        <edge id="E11">
            <lane id="E11_0">
                <vehicle id="f_0.1" pos="5.12" speed="0.25"/>
                <vehicle id="f_0.0" pos="13.61" speed="5.76"/>
            </lane>
        </edge>
        <edge id="E7">
            <lane id="E7_0">
                <vehicle id="f_1.0" pos="13.18" speed="5.55"/>
            </lane>
        </edge>
    </timestep>
    <timestep time="2.80">
        <edge id="E11">
            <lane id="E11_0">
                <vehicle id="f_0.1" pos="5.17" speed="0.49"/>
                <vehicle id="f_0.0" pos="14.20" speed="5.99"/>
            </lane>
        </edge>
        <edge id="E7">
            <lane id="E7_0">
                <vehicle id="f_1.0" pos="13.76" speed="5.76"/>
            </lane>
        </edge>
    </timestep>
    <timestep time="2.90">
        <edge id="E11">
            <lane id="E11_0">
                <vehicle id="f_0.1" pos="5.25" speed="0.73"/>
                <vehicle id="f_0.0" pos="14.82" speed="6.13"/>
            </lane>
        </edge>
        <edge id="E7">
            <lane id="E7_0">
                <vehicle id="f_1.0" pos="14.35" speed="5.97"/>
            </lane>
        </edge>
    </timestep>
    <timestep time="3.00">
        <edge id="E11">
            <lane id="E11_0">
                <vehicle id="f_0.1" pos="5.34" speed="0.96"/>
                <vehicle id="f_0.0" pos="15.45" speed="6.33"/>
            </lane>
        </edge>
        <edge id="E7">
            <lane id="E7_0">
                <vehicle id="f_1.0" pos="14.98" speed="6.23"/>
            </lane>
        </edge>
    </timestep>
    <timestep time="3.10">
        <edge id="E11">
            <lane id="E11_0">
                <vehicle id="f_0.1" pos="5.46" speed="1.21"/>
                <vehicle id="f_0.0" pos="16.11" speed="6.55"/>
            </lane>
        </edge>
        <edge id="E7">
            <lane id="E7_0">
                <vehicle id="f_1.0" pos="15.62" speed="6.47"/>
            </lane>
        </edge>
    </timestep>
    <timestep time="3.20">
        <edge id="E11">
            <lane id="E11_0">
                <vehicle id="f_0.1" pos="5.60" speed="1.40"/>
                <vehicle id="f_0.0" pos="16.78" speed="6.74"/>
            </lane>
        </edge>
        <edge id="E7">
            <lane id="E7_0">
                <vehicle id="f_1.0" pos="16.28" speed="6.62"/>
            </lane>
        </edge>
    </timestep>
    <timestep time="3.30">
        <edge id="E11">
            <lane id="E11_0">
                <vehicle id="f_0.1" pos="5.76" speed="1.58"/>
                <vehicle id="f_0.0" pos="17.47" speed="6.91"/>
            </lane>
        </edge>
        <edge id="E7">
            <lane id="E7_0">
                <vehicle id="f_1.0" pos="16.97" speed="6.88"/>
            </lane>
        </edge>
    </timestep>
    <timestep time="3.40">
        <edge id="E11">
            <lane id="E11_0">
                <vehicle id="f_0.1" pos="5.94" speed="1.79"/>
                <vehicle id="f_0.0" pos="18.18" speed="7.15"/>
            </lane>
        </edge>
        <edge id="E7">
            <lane id="E7_0">
                <vehicle id="f_1.0" pos="17.69" speed="7.14"/>
            </lane>
        </edge>
    </timestep>
    <timestep time="3.50">
        <edge id="E11">
            <lane id="E11_0">
                <vehicle id="f_0.1" pos="6.14" speed="2.00"/>
                <vehicle id="f_0.0" pos="18.92" speed="7.39"/>
            </lane>
        </edge>
        <edge id="E7">
            <lane id="E7_0">
                <vehicle id="f_1.0" pos="18.42" speed="7.34"/>
            </lane>
        </edge>
    </timestep>
    <timestep time="3.60">
        <edge id="E11">
            <lane id="E11_0">
                <vehicle id="f_0.1" pos="6.36" speed="2.16"/>
                <vehicle id="f_0.0" pos="19.68" speed="7.57"/>
            </lane>
        </edge>
        <edge id="E7">
            <lane id="E7_0">
                <vehicle id="f_1.0" pos="19.18" speed="7.57"/>
            </lane>
        </edge>
    </timestep>
    <timestep time="3.70">
        <edge id="E11">
            <lane id="E11_0">
                <vehicle id="f_0.1" pos="6.59" speed="2.32"/>
                <vehicle id="f_0.0" pos="20.46" speed="7.83"/>
            </lane>
        </edge>
        <edge id="E7">
            <lane id="E7_0">
                <vehicle id="f_1.0" pos="19.95" speed="7.71"/>
            </lane>
        </edge>
    </timestep>
    <timestep time="3.80">
        <edge id="E11">
            <lane id="E11_0">
                <vehicle id="f_0.1" pos="6.84" speed="2.47"/>
                <vehicle id="f_0.0" pos="21.27" speed="8.06"/>
            </lane>
        </edge>
        <edge id="E7">
            <lane id="E7_0">
                <vehicle id="f_1.0" pos="20.74" speed="7.95"/>
            </lane>
        </edge>
    </timestep>
    <timestep time="3.90">
        <edge id="E11">
            <lane id="E11_0">
                <vehicle id="f_0.1" pos="7.11" speed="2.69"/>
                <vehicle id="f_0.0" pos="22.10" speed="8.27"/>
            </lane>
        </edge>
        <edge id="E7">
            <lane id="E7_0">
                <vehicle id="f_1.0" pos="21.56" speed="8.17"/>
            </lane>
        </edge>
    </timestep>
    <timestep time="4.00">
        <edge id="E11">
            <lane id="E11_0">
                <vehicle id="f_0.1" pos="7.40" speed="2.89"/>
                <vehicle id="f_0.0" pos="22.94" speed="8.42"/>
            </lane>
        </edge>
        <edge id="E7">
            <lane id="E7_0">
                <vehicle id="f_1.0" pos="22.39" speed="8.35"/>
            </lane>
        </edge>
    </timestep>
    <timestep time="4.10">
        <edge id="E11">
            <lane id="E11_0">
                <vehicle id="f_0.1" pos="7.70" speed="3.07"/>
                <vehicle id="f_0.0" pos="23.80" speed="8.61"/>
            </lane>
        </edge>
        <edge id="E7">
            <lane id="E7_0">
                <vehicle id="f_1.0" pos="23.25" speed="8.60"/>
            </lane>
        </edge>
    </timestep>
    <timestep time="4.20">
        <edge id="E11">
            <lane id="E11_0">
                <vehicle id="f_0.1" pos="8.03" speed="3.26"/>
                <vehicle id="f_0.0" pos="24.68" speed="8.84"/>
            </lane>
        </edge>
        <edge id="E7">
            <lane id="E7_0">
                <vehicle id="f_1.0" pos="24.13" speed="8.77"/>
            </lane>
        </edge>
    </timestep>
    <timestep time="4.30">
        <edge id="E11">
            <lane id="E11_0">
                <vehicle id="f_0.1" pos="8.38" speed="3.47"/>
                <vehicle id="f_0.0" pos="25.58" speed="8.98"/>
            </lane>
        </edge>
        <edge id="E7">
            <lane id="E7_0">
                <vehicle id="f_1.0" pos="25.03" speed="8.95"/>
            </lane>
        </edge>
    </timestep>
    <timestep time="4.40">
        <edge id="E11">
            <lane id="E11_0">
                <vehicle id="f_0.1" pos="8.74" speed="3.61"/>
                <vehicle id="f_0.0" pos="26.50" speed="9.21"/>
            </lane>
        </edge>
        <edge id="E7">
            <lane id="E7_0">
                <vehicle id="f_1.0" pos="25.95" speed="9.20"/>
            </lane>
        </edge>
    </timestep>
    <timestep time="4.50">
        <edge id="E11">
            <lane id="E11_0">
                <vehicle id="f_0.1" pos="9.11" speed="3.75"/>
                <vehicle id="f_0.0" pos="27.45" speed="9.44"/>
            </lane>
        </edge>
        <edge id="E7">
            <lane id="E7_0">
                <vehicle id="f_1.0" pos="26.89" speed="9.39"/>
            </lane>
        </edge>
    </timestep>
    <timestep time="4.60">
        <edge id="E11">
            <lane id="E11_0">
                <vehicle id="f_0.1" pos="9.51" speed="3.93"/>
                <vehicle id="f_0.0" pos="28.41" speed="9.66"/>
            </lane>
        </edge>
        <edge id="E7">
            <lane id="E7_0">
                <vehicle id="f_1.0" pos="27.85" speed="9.65"/>
            </lane>
        </edge>
    </timestep>
    <timestep time="4.70">
        <edge id="E11">
            <lane id="E11_0">
                <vehicle id="f_0.1" pos="9.92" speed="4.10"/>
                <vehicle id="f_0.0" pos="29.40" speed="9.86"/>
            </lane>
        </edge>
        <edge id="E7">
            <lane id="E7_0">
                <vehicle id="f_1.0" pos="28.84" speed="9.85"/>
            </lane>
        </edge>
    </timestep>
    <timestep time="4.80">
        <edge id="E11">
            <lane id="E11_0">
                <vehicle id="f_0.1" pos="10.34" speed="4.26"/>
                <vehicle id="f_0.0" pos="30.40" speed="10.04"/>
            </lane>
        </edge>
        <edge id="E7">
            <lane id="E7_0">
                <vehicle id="f_1.0" pos="29.84" speed="10.01"/>
            </lane>
        </edge>
    </timestep>
    <timestep time="4.90">
        <edge id="E11">
            <lane id="E11_0">
                <vehicle id="f_0.1" pos="10.79" speed="4.47"/>
                <vehicle id="f_0.0" pos="31.43" speed="10.26"/>
            </lane>
        </edge>
        <edge id="E7">
            <lane id="E7_0">
                <vehicle id="f_1.0" pos="30.85" speed="10.17"/>
            </lane>
        </edge>
    </timestep>
    <timestep time="5.00">
        <edge id="E11">
            <lane id="E11_0">
                <vehicle id="f_0.1" pos="11.25" speed="4.65"/>
                <vehicle id="f_0.0" pos="32.48" speed="10.46"/>
            </lane>
        </edge>
        <edge id="E7">
            <lane id="E7_0">
                <vehicle id="f_1.0" pos="31.89" speed="10.38"/>
            </lane>
        </edge>
    </timestep>
    <timestep time="5.10">
        <edge id="E11">
            <lane id="E11_0">
                <vehicle id="f_0.1" pos="11.74" speed="4.85"/>
                <vehicle id="f_0.0" pos="33.54" speed="10.68"/>
            </lane>
        </edge>
        <edge id="E7">
            <lane id="E7_0">
                <vehicle id="f_1.0" pos="32.95" speed="10.56"/>
            </lane>
        </edge>
    </timestep>
    <timestep time="5.20">
        <edge id="E11">
            <lane id="E11_0">
                <vehicle id="f_0.1" pos="12.24" speed="4.98"/>
                <vehicle id="f_0.0" pos="34.63" speed="10.81"/>
            </lane>
        </edge>
        <edge id="E7">
            <lane id="E7_0">
                <vehicle id="f_1.0" pos="34.02" speed="10.73"/>
            </lane>
        </edge>
    </timestep>
    <timestep time="5.30">
        <edge id="E11">
            <lane id="E11_0">
                <vehicle id="f_0.2" pos="5.10" speed="0.00"/>
                <vehicle id="f_0.1" pos="12.76" speed="5.19"/>
                <vehicle id="f_0.0" pos="35.72" speed="10.95"/>
            </lane>
        </edge>
        <edge id="E7">
            <lane id="E7_0">
                <vehicle id="f_1.0" pos="35.11" speed="10.92"/>
            </lane>
        </edge>
    </timestep>
    <timestep time="5.40">
        <edge id="E11">
            <lane id="E11_0">
                <vehicle id="f_0.2" pos="5.12" speed="0.25"/>
                <vehicle id="f_0.1" pos="13.30" speed="5.41"/>
                <vehicle id="f_0.0" pos="36.83" speed="11.09"/>
            </lane>
        </edge>
        <edge id="E7">
            <lane id="E7_0">
                <vehicle id="f_1.0" pos="36.23" speed="11.17"/>
            </lane>
        </edge>
    </timestep>
    <timestep time="5.50">
        <edge id="E11">
            <lane id="E11_0">
                <vehicle id="f_0.2" pos="5.18" speed="0.50"/>
                <vehicle id="f_0.1" pos="13.86" speed="5.59"/>
                <vehicle id="f_0.0" pos="37.95" speed="11.24"/>
            </lane>
        </edge>
        <edge id="E7">
            <lane id="E7_0">
                <vehicle id="f_1.0" pos="37.36" speed="11.33"/>
            </lane>
        </edge>
    </timestep>
    <timestep time="5.60">
        <edge id="E11">
            <lane id="E11_0">
                <vehicle id="f_0.2" pos="5.25" speed="0.75"/>
                <vehicle id="f_0.1" pos="14.43" speed="5.77"/>
                <vehicle id="f_0.0" pos="39.09" speed="11.41"/>
            </lane>
        </edge>
        <edge id="E7">
            <lane id="E7_0">
                <vehicle id="f_1.0" pos="38.51" speed="11.50"/>
            </lane>
        </edge>
    </timestep>
    <timestep time="5.70">
        <edge id="E11">
            <lane id="E11_0">
                <vehicle id="f_0.2" pos="5.35" speed="1.01"/>
                <vehicle id="f_0.1" pos="15.03" speed="6.00"/>
                <vehicle id="f_0.0" pos="40.26" speed="11.64"/>
            </lane>
        </edge>
        <edge id="E7">
            <lane id="E7_0">
                <vehicle id="f_1.0" pos="39.68" speed="11.71"/>
            </lane>
        </edge>
    </timestep>
    <timestep time="5.80">
        <edge id="E11">
            <lane id="E11_0">
                <vehicle id="f_0.2" pos="5.47" speed="1.22"/>
                <vehicle id="f_0.1" pos="15.66" speed="6.23"/>
                <vehicle id="f_0.0" pos="41.45" speed="11.89"/>
            </lane>
        </edge>
        <edge id="E7">
            <lane id="E7_0">
                <vehicle id="f_1.0" pos="40.87" speed="11.85"/>
            </lane>
        </edge>
    </timestep>
    <timestep time="5.90">
        <edge id="E11">
            <lane id="E11_0">
                <vehicle id="f_0.2" pos="5.62" speed="1.43"/>
                <vehicle id="f_0.1" pos="16.29" speed="6.38"/>
                <vehicle id="f_0.0" pos="42.66" speed="12.12"/>
            </lane>
        </edge>
        <edge id="E7">
            <lane id="E7_0">
                <vehicle id="f_1.0" pos="42.08" speed="12.11"/>
            </lane>
        </edge>
    </timestep>
    <timestep time="6.00">
        <edge id=":J6_0">
            <lane id=":J6_0_0">
                <vehicle id="f_1.0" pos="0.52" speed="12.27"/>
            </lane>
        </edge>
        <edge id="E11">
            <lane id="E11_0">
                <vehicle id="f_0.2" pos="5.78" speed="1.62"/>
                <vehicle id="f_0.1" pos="16.95" speed="6.58"/>
                <vehicle id="f_0.0" pos="43.89" speed="12.34"/>
            </lane>
        </edge>
        <edge id="E7">
            <lane id="E7_0">
                <vehicle id="f_1.1" pos="5.10" speed="0.00"/>
            </lane>
        </edge>
    </timestep>
    <timestep time="6.10">
        <edge id=":J6_0">
            <lane id=":J6_0_0">
                <vehicle id="f_1.0" pos="1.77" speed="12.50"/>
            </lane>
        </edge>
        <edge id="E11">
            <lane id="E11_0">
                <vehicle id="f_0.2" pos="5.96" speed="1.79"/>
                <vehicle id="f_0.1" pos="17.63" speed="6.79"/>
                <vehicle id="f_0.0" pos="45.14" speed="12.52"/>
            </lane>
        </edge>
        <edge id="E7">
            <lane id="E7_0">
                <vehicle id="f_1.1" pos="5.13" speed="0.25"/>
            </lane>
        </edge>
    </timestep>
    <timestep time="6.20">
        <edge id=":J6_0">
            <lane id=":J6_0_0">
                <vehicle id="f_1.0" pos="3.03" speed="12.64"/>
            </lane>
        </edge>
        <edge id="E11">
            <lane id="E11_0">
                <vehicle id="f_0.2" pos="6.16" speed="2.00"/>
                <vehicle id="f_0.1" pos="18.33" speed="6.99"/>
                <vehicle id="f_0.0" pos="46.42" speed="12.78"/>
            </lane>
        </edge>
        <edge id="E7">
            <lane id="E7_0">
                <vehicle id="f_1.1" pos="5.18" speed="0.51"/>
            </lane>
        </edge>
    </timestep>
    <timestep time="6.30">
        <edge id=":J6_0">
            <lane id=":J6_0_0">
                <vehicle id="f_1.0" pos="4.32" speed="12.89"/>
            </lane>
        </edge>
        <edge id="E11">
            <lane id="E11_0">
                <vehicle id="f_0.2" pos="6.38" speed="2.19"/>
                <vehicle id="f_0.1" pos="19.05" speed="7.23"/>
                <vehicle id="f_0.0" pos="47.72" speed="12.95"/>
            </lane>
        </edge>
        <edge id="E7">
            <lane id="E7_0">
                <vehicle id="f_1.1" pos="5.25" speed="0.74"/>
            </lane>
        </edge>
    </timestep>
    <timestep time="6.40">
        <edge id=":J5_0">
            <lane id=":J5_0_0">
                <vehicle id="f_0.0" pos="0.37" speed="13.17"/>
            </lane>
        </edge>
        <edge id=":J6_0">
            <lane id=":J6_0_0">
                <vehicle id="f_1.0" pos="5.61" speed="12.96"/>
            </lane>
        </edge>
        <edge id="E11">
            <lane id="E11_0">
                <vehicle id="f_0.2" pos="6.61" speed="2.33"/>
                <vehicle id="f_0.1" pos="19.79" speed="7.37"/>
            </lane>
        </edge>
        <edge id="E7">
            <lane id="E7_0">
                <vehicle id="f_1.1" pos="5.35" speed="0.96"/>
            </lane>
        </edge>
    </timestep>
    <timestep time="6.50">
        <edge id=":J5_0">
            <lane id=":J5_0_0">
                <vehicle id="f_0.0" pos="1.72" speed="13.43"/>
            </lane>
        </edge>
        <edge id=":J6_0">
            <lane id=":J6_0_0">
                <vehicle id="f_1.0" pos="6.91" speed="13.00"/>
            </lane>
        </edge>
        <edge id="E11">
            <lane id="E11_0">
                <vehicle id="f_0.2" pos="6.86" speed="2.55"/>
                <vehicle id="f_0.1" pos="20.54" speed="7.53"/>
            </lane>
        </edge>
        <edge id="E7">
            <lane id="E7_0">
                <vehicle id="f_1.1" pos="5.47" speed="1.21"/>
            </lane>
        </edge>
    </timestep>
    <timestep time="6.60">
        <edge id=":J5_0">
            <lane id=":J5_0_0">
                <vehicle id="f_0.0" pos="3.08" speed="13.65"/>
            </lane>
        </edge>
        <edge id=":J6_0">
            <lane id=":J6_0_0">
                <vehicle id="f_1.0" pos="8.21" speed="12.98"/>
            </lane>
        </edge>
        <edge id="E11">
            <lane id="E11_0">
                <vehicle id="f_0.2" pos="7.14" speed="2.73"/>
                <vehicle id="f_0.1" pos="21.31" speed="7.69"/>
            </lane>
        </edge>
        <edge id="E7">
            <lane id="E7_0">
                <vehicle id="f_1.1" pos="5.61" speed="1.44"/>
            </lane>
        </edge>
    </timestep>
    <timestep time="6.70">
        <edge id=":J5_0">
            <lane id=":J5_0_0">
                <vehicle id="f_0.0" pos="4.46" speed="13.82"/>
            </lane>
        </edge>
        <edge id=":J6_0">
            <lane id=":J6_0_0">
                <vehicle id="f_1.0" pos="9.50" speed="12.92"/>
            </lane>
        </edge>
        <edge id="E11">
            <lane id="E11_0">
                <vehicle id="f_0.2" pos="7.44" speed="2.98"/>
                <vehicle id="f_0.1" pos="22.11" speed="7.94"/>
            </lane>
        </edge>
        <edge id="E7">
            <lane id="E7_0">
                <vehicle id="f_1.1" pos="5.78" speed="1.64"/>
            </lane>
        </edge>
    </timestep>
    <timestep time="6.80">
        <edge id=":J5_0">
            <lane id=":J5_0_0">
                <vehicle id="f_0.0" pos="5.86" speed="13.99"/>
            </lane>
        </edge>
        <edge id=":J6_0">
            <lane id=":J6_0_0">
                <vehicle id="f_1.0" pos="10.80" speed="12.95"/>
            </lane>
        </edge>
        <edge id="E11">
            <lane id="E11_0">